DF-ISE text

# filename: n12_msh.grd
# written by the library Delaunay
Info {
version     =  1
type        = grid
dimension   =  2
nb_vertices =  5233
nb_edges    =  10504
nb_faces    =  0
nb_elements =  5355
nb_regions  =  6
regions     = [ "Region_0" "Region_1" "gate" "source" "drain" "substrate" ]
materials     = [ Silicon Oxide Contact Contact Contact Contact ]
 }
Data {
CoordSystem {
translate = [  0  0  0 ]
transform = [  1  0  0  0  0  0  0  -1  0 ]
 }
Vertices (  5233) {
 -0.0325 -0.0013
 -0.0325 -0.00121875
 -0.031875 -0.00121875
 -0.031875 -0.0013
 -0.03125 -0.00121875
 -0.03125 -0.0013
 -0.030625 -0.00121875
 -0.030625 -0.0013
 -0.03 -0.00121875
 -0.03 -0.0013
 -0.0325 -0.0011375
 -0.031875 -0.0011375
 -0.03125 -0.0011375
 -0.030625 -0.0011375
 -0.03 -0.0011375
 -0.0325 -0.00105625
 -0.031875 -0.00105625
 -0.03125 -0.00105625
 -0.030625 -0.00105625
 -0.03 -0.00105625
 -0.0325 -0.000975
 -0.031875 -0.000975
 -0.03125 -0.000975
 -0.030625 -0.000975
 -0.03 -0.000975
 -0.0325 -0.00089375
 -0.031875 -0.00089375
 -0.03125 -0.00089375
 -0.030625 -0.00089375
 -0.03 -0.00089375
 -0.0325 -0.0008125
 -0.031875 -0.0008125
 -0.03125 -0.0008125
 -0.030625 -0.0008125
 -0.03 -0.0008125
 -0.0325 -0.00073125
 -0.031875 -0.00073125
 -0.03125 -0.00073125
 -0.030625 -0.00073125
 -0.03 -0.00073125
 -0.0325 -0.00065
 -0.031875 -0.00065
 -0.03125 -0.00065
 -0.030625 -0.00065
 -0.03 -0.00065
 -0.0325 -0.00056875
 -0.031875 -0.00056875
 -0.03125 -0.00056875
 -0.030625 -0.00056875
 -0.03 -0.00056875
 -0.0325 -0.0004875
 -0.031875 -0.0004875
 -0.03125 -0.0004875
 -0.030625 -0.0004875
 -0.03 -0.0004875
 -0.0325 -0.00040625
 -0.031875 -0.00040625
 -0.03125 -0.00040625
 -0.030625 -0.00040625
 -0.03 -0.00040625
 -0.0325 -0.000325
 -0.031875 -0.000325
 -0.03125 -0.000325
 -0.030625 -0.000325
 -0.03 -0.000325
 -0.0325 -0.00024375
 -0.031875 -0.00024375
 -0.03125 -0.00024375
 -0.030625 -0.00024375
 -0.03 -0.00024375
 -0.0325 -0.0001625
 -0.031875 -0.0001625
 -0.03125 -0.0001625
 -0.030625 -0.0001625
 -0.03 -0.0001625
 -0.0325 -8.125e-005
 -0.031875 -8.125e-005
 -0.03125 -8.125e-005
 -0.030625 -8.125e-005
 -0.03 -8.125e-005
 -0.0325 0
 -0.031875 0
 -0.03125 0
 -0.030625 0
 -0.03 0
 -0.029375 -0.00121875
 -0.029375 -0.0013
 -0.02875 -0.00121875
 -0.02875 -0.0013
 -0.028125 -0.00121875
 -0.028125 -0.0013
 -0.0275 -0.00121875
 -0.0275 -0.0013
 -0.029375 -0.0011375
 -0.02875 -0.0011375
 -0.028125 -0.0011375
 -0.0275 -0.0011375
 -0.029375 -0.00105625
 -0.02875 -0.00105625
 -0.028125 -0.00105625
 -0.0275 -0.00105625
 -0.029375 -0.000975
 -0.02875 -0.000975
 -0.028125 -0.000975
 -0.0275 -0.000975
 -0.029375 -0.00089375
 -0.02875 -0.00089375
 -0.028125 -0.00089375
 -0.0275 -0.00089375
 -0.029375 -0.0008125
 -0.02875 -0.0008125
 -0.028125 -0.0008125
 -0.0275 -0.0008125
 -0.029375 -0.00073125
 -0.02875 -0.00073125
 -0.028125 -0.00073125
 -0.0275 -0.00073125
 -0.029375 -0.00065
 -0.02875 -0.00065
 -0.028125 -0.00065
 -0.0275 -0.00065
 -0.029375 -0.00056875
 -0.02875 -0.00056875
 -0.028125 -0.00056875
 -0.0275 -0.00056875
 -0.029375 -0.0004875
 -0.02875 -0.0004875
 -0.028125 -0.0004875
 -0.0275 -0.0004875
 -0.029375 -0.00040625
 -0.02875 -0.00040625
 -0.028125 -0.00040625
 -0.0275 -0.00040625
 -0.029375 -0.000325
 -0.02875 -0.000325
 -0.028125 -0.000325
 -0.0275 -0.000325
 -0.029375 -0.00024375
 -0.02875 -0.00024375
 -0.028125 -0.00024375
 -0.0275 -0.00024375
 -0.029375 -0.0001625
 -0.02875 -0.0001625
 -0.028125 -0.0001625
 -0.0275 -0.0001625
 -0.029375 -8.125e-005
 -0.02875 -8.125e-005
 -0.028125 -8.125e-005
 -0.0275 -8.125e-005
 -0.029375 0
 -0.02875 0
 -0.028125 0
 -0.0275 0
 -0.026640625 -0.00121875
 -0.026640625 -0.0013
 -0.02578125 -0.00121875
 -0.02578125 -0.0013
 -0.026640625 -0.0011375
 -0.02578125 -0.0011375
 -0.026640625 -0.00105625
 -0.02578125 -0.00105625
 -0.026640625 -0.000975
 -0.02578125 -0.000975
 -0.026640625 -0.00089375
 -0.02578125 -0.00089375
 -0.026640625 -0.0008125
 -0.02578125 -0.0008125
 -0.026640625 -0.00073125
 -0.02578125 -0.00073125
 -0.026640625 -0.00065
 -0.02578125 -0.00065
 -0.026640625 -0.00056875
 -0.02578125 -0.00056875
 -0.026640625 -0.0004875
 -0.02578125 -0.0004875
 -0.026640625 -0.00040625
 -0.02578125 -0.00040625
 -0.026640625 -0.000325
 -0.02578125 -0.000325
 -0.026640625 -0.00024375
 -0.02578125 -0.00024375
 -0.026640625 -0.0001625
 -0.02578125 -0.0001625
 -0.026640625 -8.125e-005
 -0.02578125 -8.125e-005
 -0.026640625 0
 -0.02578125 0
 -0.024921875 -0.00121875
 -0.024921875 -0.0013
 -0.0240625 -0.00121875
 -0.0240625 -0.0013
 -0.024921875 -0.0011375
 -0.0240625 -0.0011375
 -0.024921875 -0.00105625
 -0.0240625 -0.00105625
 -0.024921875 -0.000975
 -0.0240625 -0.000975
 -0.024921875 -0.00089375
 -0.0240625 -0.00089375
 -0.024921875 -0.0008125
 -0.0240625 -0.0008125
 -0.024921875 -0.00073125
 -0.0240625 -0.00073125
 -0.024921875 -0.00065
 -0.0240625 -0.00065
 -0.024921875 -0.00056875
 -0.0240625 -0.00056875
 -0.024921875 -0.0004875
 -0.0240625 -0.0004875
 -0.024921875 -0.00040625
 -0.0240625 -0.00040625
 -0.024921875 -0.000325
 -0.0240625 -0.000325
 -0.024921875 -0.00024375
 -0.0240625 -0.00024375
 -0.024921875 -0.0001625
 -0.0240625 -0.0001625
 -0.024921875 -8.125e-005
 -0.0240625 -8.125e-005
 -0.024921875 0
 -0.0240625 0
 -0.023203125 -0.00121875
 -0.023203125 -0.0013
 -0.02234375 -0.00121875
 -0.02234375 -0.0013
 -0.023203125 -0.0011375
 -0.02234375 -0.0011375
 -0.023203125 -0.00105625
 -0.02234375 -0.00105625
 -0.023203125 -0.000975
 -0.02234375 -0.000975
 -0.023203125 -0.00089375
 -0.02234375 -0.00089375
 -0.023203125 -0.0008125
 -0.02234375 -0.0008125
 -0.023203125 -0.00073125
 -0.02234375 -0.00073125
 -0.023203125 -0.00065
 -0.02234375 -0.00065
 -0.023203125 -0.00056875
 -0.02234375 -0.00056875
 -0.023203125 -0.0004875
 -0.02234375 -0.0004875
 -0.023203125 -0.00040625
 -0.02234375 -0.00040625
 -0.023203125 -0.000325
 -0.02234375 -0.000325
 -0.023203125 -0.00024375
 -0.02234375 -0.00024375
 -0.023203125 -0.0001625
 -0.02234375 -0.0001625
 -0.023203125 -8.125e-005
 -0.02234375 -8.125e-005
 -0.023203125 0
 -0.02234375 0
 -0.020625 -0.00121875
 -0.020625 -0.0013
 -0.020625 -0.0011375
 -0.020625 -0.00105625
 -0.020625 -0.000975
 -0.020625 -0.00089375
 -0.020625 -0.0008125
 -0.020625 -0.00073125
 -0.020625 -0.00065
 -0.020625 -0.00056875
 -0.020625 -0.0004875
 -0.020625 -0.00040625
 -0.020625 -0.000325
 -0.020625 -0.00024375
 -0.020625 -0.0001625
 -0.020625 -8.125e-005
 -0.020625 0
 -0.01890625 -0.00121875
 -0.01890625 -0.0013
 -0.01890625 -0.0011375
 -0.01890625 -0.00105625
 -0.01890625 -0.000975
 -0.01890625 -0.00089375
 -0.01890625 -0.0008125
 -0.01890625 -0.00073125
 -0.01890625 -0.00065
 -0.01890625 -0.00056875
 -0.01890625 -0.0004875
 -0.01890625 -0.00040625
 -0.01890625 -0.000325
 -0.01890625 -0.00024375
 -0.01890625 -0.0001625
 -0.01890625 -8.125e-005
 -0.01890625 0
 -0.0171875 -0.00121875
 -0.0171875 -0.0013
 -0.0171875 -0.0011375
 -0.0171875 -0.00105625
 -0.0171875 -0.000975
 -0.0171875 -0.00089375
 -0.0171875 -0.0008125
 -0.0171875 -0.00073125
 -0.0171875 -0.00065
 -0.0171875 -0.00056875
 -0.0171875 -0.0004875
 -0.0171875 -0.00040625
 -0.0171875 -0.000325
 -0.0171875 -0.00024375
 -0.0171875 -0.0001625
 -0.0171875 -8.125e-005
 -0.0171875 0
 -0.01546875 -0.00121875
 -0.01546875 -0.0013
 -0.01546875 -0.0011375
 -0.01546875 -0.00105625
 -0.01546875 -0.000975
 -0.01546875 -0.00089375
 -0.01546875 -0.0008125
 -0.01546875 -0.00073125
 -0.01546875 -0.00065
 -0.01546875 -0.00056875
 -0.01546875 -0.0004875
 -0.01546875 -0.00040625
 -0.01546875 -0.000325
 -0.01546875 -0.00024375
 -0.01546875 -0.0001625
 -0.01546875 -8.125e-005
 -0.01546875 0
 -0.01375 -0.00121875
 -0.01375 -0.0013
 -0.01375 -0.0011375
 -0.01375 -0.00105625
 -0.01375 -0.000975
 -0.01375 -0.00089375
 -0.01375 -0.0008125
 -0.01375 -0.00073125
 -0.01375 -0.00065
 -0.01375 -0.00056875
 -0.01375 -0.0004875
 -0.01375 -0.00040625
 -0.01375 -0.000325
 -0.01375 -0.00024375
 -0.01375 -0.0001625
 -0.01375 -8.125e-005
 -0.01375 0
 -0.01203125 -0.00121875
 -0.01203125 -0.0013
 -0.01203125 -0.0011375
 -0.01203125 -0.00105625
 -0.01203125 -0.000975
 -0.01203125 -0.00089375
 -0.01203125 -0.0008125
 -0.01203125 -0.00073125
 -0.01203125 -0.00065
 -0.01203125 -0.00056875
 -0.01203125 -0.0004875
 -0.01203125 -0.00040625
 -0.01203125 -0.000325
 -0.01203125 -0.00024375
 -0.01203125 -0.0001625
 -0.01203125 -8.125e-005
 -0.01203125 0
 -0.0103125 -0.00121875
 -0.0103125 -0.0013
 -0.0103125 -0.0011375
 -0.0103125 -0.00105625
 -0.0103125 -0.000975
 -0.0103125 -0.00089375
 -0.0103125 -0.0008125
 -0.0103125 -0.00073125
 -0.0103125 -0.00065
 -0.0103125 -0.00056875
 -0.0103125 -0.0004875
 -0.0103125 -0.00040625
 -0.0103125 -0.000325
 -0.0103125 -0.00024375
 -0.0103125 -0.0001625
 -0.0103125 -8.125e-005
 -0.0103125 0
 -0.00859375 -0.00121875
 -0.00859375 -0.0013
 -0.00859375 -0.0011375
 -0.00859375 -0.00105625
 -0.00859375 -0.000975
 -0.00859375 -0.00089375
 -0.00859375 -0.0008125
 -0.00859375 -0.00073125
 -0.00859375 -0.00065
 -0.00859375 -0.00056875
 -0.00859375 -0.0004875
 -0.00859375 -0.00040625
 -0.00859375 -0.000325
 -0.00859375 -0.00024375
 -0.00859375 -0.0001625
 -0.00859375 -8.125e-005
 -0.00859375 0
 -0.006875 -0.00121875
 -0.006875 -0.0013
 -0.006875 -0.0011375
 -0.006875 -0.00105625
 -0.006875 -0.000975
 -0.006875 -0.00089375
 -0.006875 -0.0008125
 -0.006875 -0.00073125
 -0.006875 -0.00065
 -0.006875 -0.00056875
 -0.006875 -0.0004875
 -0.006875 -0.00040625
 -0.006875 -0.000325
 -0.006875 -0.00024375
 -0.006875 -0.0001625
 -0.006875 -8.125e-005
 -0.006875 0
 -0.00515625 -0.00121875
 -0.00515625 -0.0013
 -0.00515625 -0.0011375
 -0.00515625 -0.00105625
 -0.00515625 -0.000975
 -0.00515625 -0.00089375
 -0.00515625 -0.0008125
 -0.00515625 -0.00073125
 -0.00515625 -0.00065
 -0.00515625 -0.00056875
 -0.00515625 -0.0004875
 -0.00515625 -0.00040625
 -0.00515625 -0.000325
 -0.00515625 -0.00024375
 -0.00515625 -0.0001625
 -0.00515625 -8.125e-005
 -0.00515625 0
 -0.0034375 -0.00121875
 -0.0034375 -0.0013
 -0.0034375 -0.0011375
 -0.0034375 -0.00105625
 -0.0034375 -0.000975
 -0.0034375 -0.00089375
 -0.0034375 -0.0008125
 -0.0034375 -0.00073125
 -0.0034375 -0.00065
 -0.0034375 -0.00056875
 -0.0034375 -0.0004875
 -0.0034375 -0.00040625
 -0.0034375 -0.000325
 -0.0034375 -0.00024375
 -0.0034375 -0.0001625
 -0.0034375 -8.125e-005
 -0.0034375 0
 -0.00171875 -0.00121875
 -0.00171875 -0.0013
 -0.00171875 -0.0011375
 -0.00171875 -0.00105625
 -0.00171875 -0.000975
 -0.00171875 -0.00089375
 -0.00171875 -0.0008125
 -0.00171875 -0.00073125
 -0.00171875 -0.00065
 -0.00171875 -0.00056875
 -0.00171875 -0.0004875
 -0.00171875 -0.00040625
 -0.00171875 -0.000325
 -0.00171875 -0.00024375
 -0.00171875 -0.0001625
 -0.00171875 -8.125e-005
 -0.00171875 0
 0 -0.00121875
 0 -0.0013
 0 -0.0011375
 0 -0.00105625
 0 -0.000975
 0 -0.00089375
 0 -0.0008125
 0 -0.00073125
 0 -0.00065
 0 -0.00056875
 0 -0.0004875
 0 -0.00040625
 0 -0.000325
 0 -0.00024375
 0 -0.0001625
 0 -8.125e-005
 0 0
 0.00171875 -0.00121875
 0.00171875 -0.0013
 0.00171875 -0.0011375
 0.00171875 -0.00105625
 0.00171875 -0.000975
 0.00171875 -0.00089375
 0.00171875 -0.0008125
 0.00171875 -0.00073125
 0.00171875 -0.00065
 0.00171875 -0.00056875
 0.00171875 -0.0004875
 0.00171875 -0.00040625
 0.00171875 -0.000325
 0.00171875 -0.00024375
 0.00171875 -0.0001625
 0.00171875 -8.125e-005
 0.00171875 0
 0.0034375 -0.00121875
 0.0034375 -0.0013
 0.0034375 -0.0011375
 0.0034375 -0.00105625
 0.0034375 -0.000975
 0.0034375 -0.00089375
 0.0034375 -0.0008125
 0.0034375 -0.00073125
 0.0034375 -0.00065
 0.0034375 -0.00056875
 0.0034375 -0.0004875
 0.0034375 -0.00040625
 0.0034375 -0.000325
 0.0034375 -0.00024375
 0.0034375 -0.0001625
 0.0034375 -8.125e-005
 0.0034375 0
 0.00515625 -0.00121875
 0.00515625 -0.0013
 0.00515625 -0.0011375
 0.00515625 -0.00105625
 0.00515625 -0.000975
 0.00515625 -0.00089375
 0.00515625 -0.0008125
 0.00515625 -0.00073125
 0.00515625 -0.00065
 0.00515625 -0.00056875
 0.00515625 -0.0004875
 0.00515625 -0.00040625
 0.00515625 -0.000325
 0.00515625 -0.00024375
 0.00515625 -0.0001625
 0.00515625 -8.125e-005
 0.00515625 0
 0.006875 -0.00121875
 0.006875 -0.0013
 0.006875 -0.0011375
 0.006875 -0.00105625
 0.006875 -0.000975
 0.006875 -0.00089375
 0.006875 -0.0008125
 0.006875 -0.00073125
 0.006875 -0.00065
 0.006875 -0.00056875
 0.006875 -0.0004875
 0.006875 -0.00040625
 0.006875 -0.000325
 0.006875 -0.00024375
 0.006875 -0.0001625
 0.006875 -8.125e-005
 0.006875 0
 0.00859375 -0.00121875
 0.00859375 -0.0013
 0.00859375 -0.0011375
 0.00859375 -0.00105625
 0.00859375 -0.000975
 0.00859375 -0.00089375
 0.00859375 -0.0008125
 0.00859375 -0.00073125
 0.00859375 -0.00065
 0.00859375 -0.00056875
 0.00859375 -0.0004875
 0.00859375 -0.00040625
 0.00859375 -0.000325
 0.00859375 -0.00024375
 0.00859375 -0.0001625
 0.00859375 -8.125e-005
 0.00859375 0
 0.0103125 -0.00121875
 0.0103125 -0.0013
 0.0103125 -0.0011375
 0.0103125 -0.00105625
 0.0103125 -0.000975
 0.0103125 -0.00089375
 0.0103125 -0.0008125
 0.0103125 -0.00073125
 0.0103125 -0.00065
 0.0103125 -0.00056875
 0.0103125 -0.0004875
 0.0103125 -0.00040625
 0.0103125 -0.000325
 0.0103125 -0.00024375
 0.0103125 -0.0001625
 0.0103125 -8.125e-005
 0.0103125 0
 0.01203125 -0.00121875
 0.01203125 -0.0013
 0.01203125 -0.0011375
 0.01203125 -0.00105625
 0.01203125 -0.000975
 0.01203125 -0.00089375
 0.01203125 -0.0008125
 0.01203125 -0.00073125
 0.01203125 -0.00065
 0.01203125 -0.00056875
 0.01203125 -0.0004875
 0.01203125 -0.00040625
 0.01203125 -0.000325
 0.01203125 -0.00024375
 0.01203125 -0.0001625
 0.01203125 -8.125e-005
 0.01203125 0
 0.01375 -0.00121875
 0.01375 -0.0013
 0.01375 -0.0011375
 0.01375 -0.00105625
 0.01375 -0.000975
 0.01375 -0.00089375
 0.01375 -0.0008125
 0.01375 -0.00073125
 0.01375 -0.00065
 0.01375 -0.00056875
 0.01375 -0.0004875
 0.01375 -0.00040625
 0.01375 -0.000325
 0.01375 -0.00024375
 0.01375 -0.0001625
 0.01375 -8.125e-005
 0.01375 0
 0.01546875 -0.00121875
 0.01546875 -0.0013
 0.01546875 -0.0011375
 0.01546875 -0.00105625
 0.01546875 -0.000975
 0.01546875 -0.00089375
 0.01546875 -0.0008125
 0.01546875 -0.00073125
 0.01546875 -0.00065
 0.01546875 -0.00056875
 0.01546875 -0.0004875
 0.01546875 -0.00040625
 0.01546875 -0.000325
 0.01546875 -0.00024375
 0.01546875 -0.0001625
 0.01546875 -8.125e-005
 0.01546875 0
 0.0171875 -0.00121875
 0.0171875 -0.0013
 0.0171875 -0.0011375
 0.0171875 -0.00105625
 0.0171875 -0.000975
 0.0171875 -0.00089375
 0.0171875 -0.0008125
 0.0171875 -0.00073125
 0.0171875 -0.00065
 0.0171875 -0.00056875
 0.0171875 -0.0004875
 0.0171875 -0.00040625
 0.0171875 -0.000325
 0.0171875 -0.00024375
 0.0171875 -0.0001625
 0.0171875 -8.125e-005
 0.0171875 0
 0.01890625 -0.00121875
 0.01890625 -0.0013
 0.01890625 -0.0011375
 0.01890625 -0.00105625
 0.01890625 -0.000975
 0.01890625 -0.00089375
 0.01890625 -0.0008125
 0.01890625 -0.00073125
 0.01890625 -0.00065
 0.01890625 -0.00056875
 0.01890625 -0.0004875
 0.01890625 -0.00040625
 0.01890625 -0.000325
 0.01890625 -0.00024375
 0.01890625 -0.0001625
 0.01890625 -8.125e-005
 0.01890625 0
 0.020625 -0.00121875
 0.020625 -0.0013
 0.020625 -0.0011375
 0.020625 -0.00105625
 0.020625 -0.000975
 0.020625 -0.00089375
 0.020625 -0.0008125
 0.020625 -0.00073125
 0.020625 -0.00065
 0.020625 -0.00056875
 0.020625 -0.0004875
 0.020625 -0.00040625
 0.020625 -0.000325
 0.020625 -0.00024375
 0.020625 -0.0001625
 0.020625 -8.125e-005
 0.020625 0
 0.02234375 -0.00121875
 0.02234375 -0.0013
 0.02234375 -0.0011375
 0.02234375 -0.00105625
 0.02234375 -0.000975
 0.02234375 -0.00089375
 0.02234375 -0.0008125
 0.02234375 -0.00073125
 0.02234375 -0.00065
 0.02234375 -0.00056875
 0.02234375 -0.0004875
 0.02234375 -0.00040625
 0.02234375 -0.000325
 0.02234375 -0.00024375
 0.02234375 -0.0001625
 0.02234375 -8.125e-005
 0.02234375 0
 0.023203125 -0.00121875
 0.023203125 -0.0013
 0.0240625 -0.00121875
 0.0240625 -0.0013
 0.023203125 -0.0011375
 0.0240625 -0.0011375
 0.023203125 -0.00105625
 0.0240625 -0.00105625
 0.023203125 -0.000975
 0.0240625 -0.000975
 0.023203125 -0.00089375
 0.0240625 -0.00089375
 0.023203125 -0.0008125
 0.0240625 -0.0008125
 0.023203125 -0.00073125
 0.0240625 -0.00073125
 0.023203125 -0.00065
 0.0240625 -0.00065
 0.023203125 -0.00056875
 0.0240625 -0.00056875
 0.023203125 -0.0004875
 0.0240625 -0.0004875
 0.023203125 -0.00040625
 0.0240625 -0.00040625
 0.023203125 -0.000325
 0.0240625 -0.000325
 0.023203125 -0.00024375
 0.0240625 -0.00024375
 0.023203125 -0.0001625
 0.0240625 -0.0001625
 0.023203125 -8.125e-005
 0.0240625 -8.125e-005
 0.023203125 0
 0.0240625 0
 0.024921875 -0.00121875
 0.024921875 -0.0013
 0.02578125 -0.00121875
 0.02578125 -0.0013
 0.024921875 -0.0011375
 0.02578125 -0.0011375
 0.024921875 -0.00105625
 0.02578125 -0.00105625
 0.024921875 -0.000975
 0.02578125 -0.000975
 0.024921875 -0.00089375
 0.02578125 -0.00089375
 0.024921875 -0.0008125
 0.02578125 -0.0008125
 0.024921875 -0.00073125
 0.02578125 -0.00073125
 0.024921875 -0.00065
 0.02578125 -0.00065
 0.024921875 -0.00056875
 0.02578125 -0.00056875
 0.024921875 -0.0004875
 0.02578125 -0.0004875
 0.024921875 -0.00040625
 0.02578125 -0.00040625
 0.024921875 -0.000325
 0.02578125 -0.000325
 0.024921875 -0.00024375
 0.02578125 -0.00024375
 0.024921875 -0.0001625
 0.02578125 -0.0001625
 0.024921875 -8.125e-005
 0.02578125 -8.125e-005
 0.024921875 0
 0.02578125 0
 0.026640625 -0.00121875
 0.026640625 -0.0013
 0.0275 -0.00121875
 0.0275 -0.0013
 0.026640625 -0.0011375
 0.0275 -0.0011375
 0.026640625 -0.00105625
 0.0275 -0.00105625
 0.026640625 -0.000975
 0.0275 -0.000975
 0.026640625 -0.00089375
 0.0275 -0.00089375
 0.026640625 -0.0008125
 0.0275 -0.0008125
 0.026640625 -0.00073125
 0.0275 -0.00073125
 0.026640625 -0.00065
 0.0275 -0.00065
 0.026640625 -0.00056875
 0.0275 -0.00056875
 0.026640625 -0.0004875
 0.0275 -0.0004875
 0.026640625 -0.00040625
 0.0275 -0.00040625
 0.026640625 -0.000325
 0.0275 -0.000325
 0.026640625 -0.00024375
 0.0275 -0.00024375
 0.026640625 -0.0001625
 0.0275 -0.0001625
 0.026640625 -8.125e-005
 0.0275 -8.125e-005
 0.026640625 0
 0.0275 0
 0.028125 -0.00121875
 0.028125 -0.0013
 0.02875 -0.00121875
 0.02875 -0.0013
 0.029375 -0.00121875
 0.029375 -0.0013
 0.03 -0.00121875
 0.03 -0.0013
 0.028125 -0.0011375
 0.02875 -0.0011375
 0.029375 -0.0011375
 0.03 -0.0011375
 0.028125 -0.00105625
 0.02875 -0.00105625
 0.029375 -0.00105625
 0.03 -0.00105625
 0.028125 -0.000975
 0.02875 -0.000975
 0.029375 -0.000975
 0.03 -0.000975
 0.028125 -0.00089375
 0.02875 -0.00089375
 0.029375 -0.00089375
 0.03 -0.00089375
 0.028125 -0.0008125
 0.02875 -0.0008125
 0.029375 -0.0008125
 0.03 -0.0008125
 0.028125 -0.00073125
 0.02875 -0.00073125
 0.029375 -0.00073125
 0.03 -0.00073125
 0.028125 -0.00065
 0.02875 -0.00065
 0.029375 -0.00065
 0.03 -0.00065
 0.028125 -0.00056875
 0.02875 -0.00056875
 0.029375 -0.00056875
 0.03 -0.00056875
 0.028125 -0.0004875
 0.02875 -0.0004875
 0.029375 -0.0004875
 0.03 -0.0004875
 0.028125 -0.00040625
 0.02875 -0.00040625
 0.029375 -0.00040625
 0.03 -0.00040625
 0.028125 -0.000325
 0.02875 -0.000325
 0.029375 -0.000325
 0.03 -0.000325
 0.028125 -0.00024375
 0.02875 -0.00024375
 0.029375 -0.00024375
 0.03 -0.00024375
 0.028125 -0.0001625
 0.02875 -0.0001625
 0.029375 -0.0001625
 0.03 -0.0001625
 0.028125 -8.125e-005
 0.02875 -8.125e-005
 0.029375 -8.125e-005
 0.03 -8.125e-005
 0.028125 0
 0.02875 0
 0.029375 0
 0.03 0
 0.030625 -0.00121875
 0.030625 -0.0013
 0.03125 -0.00121875
 0.03125 -0.0013
 0.031875 -0.00121875
 0.031875 -0.0013
 0.0325 -0.00121875
 0.0325 -0.0013
 0.030625 -0.0011375
 0.03125 -0.0011375
 0.031875 -0.0011375
 0.0325 -0.0011375
 0.030625 -0.00105625
 0.03125 -0.00105625
 0.031875 -0.00105625
 0.0325 -0.00105625
 0.030625 -0.000975
 0.03125 -0.000975
 0.031875 -0.000975
 0.0325 -0.000975
 0.030625 -0.00089375
 0.03125 -0.00089375
 0.031875 -0.00089375
 0.0325 -0.00089375
 0.030625 -0.0008125
 0.03125 -0.0008125
 0.031875 -0.0008125
 0.0325 -0.0008125
 0.030625 -0.00073125
 0.03125 -0.00073125
 0.031875 -0.00073125
 0.0325 -0.00073125
 0.030625 -0.00065
 0.03125 -0.00065
 0.031875 -0.00065
 0.0325 -0.00065
 0.030625 -0.00056875
 0.03125 -0.00056875
 0.031875 -0.00056875
 0.0325 -0.00056875
 0.030625 -0.0004875
 0.03125 -0.0004875
 0.031875 -0.0004875
 0.0325 -0.0004875
 0.030625 -0.00040625
 0.03125 -0.00040625
 0.031875 -0.00040625
 0.0325 -0.00040625
 0.030625 -0.000325
 0.03125 -0.000325
 0.031875 -0.000325
 0.0325 -0.000325
 0.030625 -0.00024375
 0.03125 -0.00024375
 0.031875 -0.00024375
 0.0325 -0.00024375
 0.030625 -0.0001625
 0.03125 -0.0001625
 0.031875 -0.0001625
 0.0325 -0.0001625
 0.030625 -8.125e-005
 0.03125 -8.125e-005
 0.031875 -8.125e-005
 0.0325 -8.125e-005
 0.030625 0
 0.03125 0
 0.031875 0
 0.0325 0
 -0.0825 0
 -0.0825 0.000390625
 -0.079375 0.000390625
 -0.079375 0
 -0.0825 0.00078125
 -0.079375 0.00078125
 -0.0825 0.001171875
 -0.079375 0.001171875
 -0.0825 0.0015625
 -0.079375 0.0015625
 -0.0825 0.001953125
 -0.079375 0.001953125
 -0.0825 0.00234375
 -0.079375 0.00234375
 -0.0825 0.002734375
 -0.079375 0.002734375
 -0.0825 0.003125
 -0.079375 0.003125
 -0.07625 0.000390625
 -0.07625 0
 -0.07625 0.00078125
 -0.07625 0.001171875
 -0.07625 0.0015625
 -0.07625 0.001953125
 -0.07625 0.00234375
 -0.07625 0.002734375
 -0.07625 0.003125
 -0.0825 0.003515625
 -0.079375 0.003515625
 -0.0825 0.00390625
 -0.079375 0.00390625
 -0.0825 0.004296875
 -0.079375 0.004296875
 -0.0825 0.0046875
 -0.079375 0.0046875
 -0.0825 0.005078125
 -0.079375 0.005078125
 -0.0825 0.00546875
 -0.079375 0.00546875
 -0.0825 0.005859375
 -0.079375 0.005859375
 -0.0825 0.00625
 -0.079375 0.00625
 -0.07625 0.003515625
 -0.07625 0.00390625
 -0.07625 0.004296875
 -0.07625 0.0046875
 -0.07625 0.005078125
 -0.07625 0.00546875
 -0.07625 0.005859375
 -0.07625 0.00625
 -0.073125 0.000390625
 -0.073125 0
 -0.073125 0.00078125
 -0.073125 0.001171875
 -0.073125 0.0015625
 -0.073125 0.001953125
 -0.073125 0.00234375
 -0.073125 0.002734375
 -0.073125 0.003125
 -0.07 0.000390625
 -0.07 0
 -0.07 0.00078125
 -0.07 0.001171875
 -0.07 0.0015625
 -0.07 0.001953125
 -0.07 0.00234375
 -0.07 0.002734375
 -0.07 0.003125
 -0.073125 0.003515625
 -0.073125 0.00390625
 -0.073125 0.004296875
 -0.073125 0.0046875
 -0.073125 0.005078125
 -0.073125 0.00546875
 -0.073125 0.005859375
 -0.073125 0.00625
 -0.07 0.003515625
 -0.07 0.00390625
 -0.07 0.004296875
 -0.07 0.0046875
 -0.07 0.005078125
 -0.07 0.00546875
 -0.07 0.005859375
 -0.07 0.00625
 -0.0825 0.006640625
 -0.079375 0.006640625
 -0.0825 0.00703125
 -0.079375 0.00703125
 -0.0825 0.007421875
 -0.079375 0.007421875
 -0.0825 0.0078125
 -0.079375 0.0078125
 -0.0825 0.008203125
 -0.079375 0.008203125
 -0.0825 0.00859375
 -0.079375 0.00859375
 -0.0825 0.008984375
 -0.079375 0.008984375
 -0.0825 0.009375
 -0.079375 0.009375
 -0.07625 0.006640625
 -0.07625 0.00703125
 -0.07625 0.007421875
 -0.07625 0.0078125
 -0.07625 0.008203125
 -0.07625 0.00859375
 -0.07625 0.008984375
 -0.07625 0.009375
 -0.0825 0.009765625
 -0.079375 0.009765625
 -0.0825 0.01015625
 -0.079375 0.01015625
 -0.0825 0.0109375
 -0.079375 0.0109375
 -0.0825 0.0125
 -0.079375 0.0125
 -0.07625 0.009765625
 -0.07625 0.01015625
 -0.07625 0.0109375
 -0.07625 0.0125
 -0.073125 0.006640625
 -0.073125 0.00703125
 -0.073125 0.007421875
 -0.073125 0.0078125
 -0.073125 0.008203125
 -0.073125 0.00859375
 -0.073125 0.008984375
 -0.073125 0.009375
 -0.07 0.006640625
 -0.07 0.00703125
 -0.07 0.007421875
 -0.07 0.0078125
 -0.07 0.008203125
 -0.07 0.00859375
 -0.07 0.008984375
 -0.07 0.009375
 -0.073125 0.009765625
 -0.073125 0.01015625
 -0.073125 0.0109375
 -0.073125 0.0125
 -0.07 0.009765625
 -0.07 0.01015625
 -0.07 0.0109375
 -0.07 0.0125
 -0.066875 0.000390625
 -0.066875 0
 -0.066875 0.00078125
 -0.066875 0.001171875
 -0.066875 0.0015625
 -0.066875 0.001953125
 -0.066875 0.00234375
 -0.066875 0.002734375
 -0.066875 0.003125
 -0.06375 0.000390625
 -0.06375 0
 -0.06375 0.00078125
 -0.06375 0.001171875
 -0.06375 0.0015625
 -0.06375 0.001953125
 -0.06375 0.00234375
 -0.06375 0.002734375
 -0.06375 0.003125
 -0.066875 0.003515625
 -0.066875 0.00390625
 -0.066875 0.004296875
 -0.066875 0.0046875
 -0.066875 0.005078125
 -0.066875 0.00546875
 -0.066875 0.005859375
 -0.066875 0.00625
 -0.06375 0.003515625
 -0.06375 0.00390625
 -0.06375 0.004296875
 -0.06375 0.0046875
 -0.06375 0.005078125
 -0.06375 0.00546875
 -0.06375 0.005859375
 -0.06375 0.00625
 -0.060625 0.000390625
 -0.060625 0
 -0.060625 0.00078125
 -0.060625 0.001171875
 -0.060625 0.0015625
 -0.060625 0.001953125
 -0.060625 0.00234375
 -0.060625 0.002734375
 -0.060625 0.003125
 -0.0575 0.000390625
 -0.0575 0
 -0.0575 0.00078125
 -0.0575 0.001171875
 -0.0575 0.0015625
 -0.0575 0.001953125
 -0.0575 0.00234375
 -0.0575 0.002734375
 -0.0575 0.003125
 -0.060625 0.003515625
 -0.060625 0.00390625
 -0.060625 0.004296875
 -0.060625 0.0046875
 -0.060625 0.005078125
 -0.060625 0.00546875
 -0.060625 0.005859375
 -0.060625 0.00625
 -0.0575 0.003515625
 -0.0575 0.00390625
 -0.0575 0.004296875
 -0.0575 0.0046875
 -0.0575 0.005078125
 -0.0575 0.00546875
 -0.0575 0.005859375
 -0.0575 0.00625
 -0.066875 0.006640625
 -0.066875 0.00703125
 -0.066875 0.007421875
 -0.066875 0.0078125
 -0.066875 0.008203125
 -0.066875 0.00859375
 -0.066875 0.008984375
 -0.066875 0.009375
 -0.06375 0.006640625
 -0.06375 0.00703125
 -0.06375 0.007421875
 -0.06375 0.0078125
 -0.06375 0.008203125
 -0.06375 0.00859375
 -0.06375 0.008984375
 -0.06375 0.009375
 -0.066875 0.009765625
 -0.066875 0.01015625
 -0.066875 0.0109375
 -0.066875 0.0125
 -0.06375 0.009765625
 -0.06375 0.01015625
 -0.06375 0.0109375
 -0.06375 0.0125
 -0.060625 0.006640625
 -0.060625 0.00703125
 -0.060625 0.007421875
 -0.060625 0.0078125
 -0.060625 0.008203125
 -0.060625 0.00859375
 -0.060625 0.008984375
 -0.060625 0.009375
 -0.0575 0.006640625
 -0.0575 0.00703125
 -0.0575 0.007421875
 -0.0575 0.0078125
 -0.0575 0.008203125
 -0.0575 0.00859375
 -0.0575 0.008984375
 -0.0575 0.009375
 -0.060625 0.009765625
 -0.060625 0.01015625
 -0.060625 0.0109375
 -0.060625 0.0125
 -0.0575 0.009765625
 -0.0575 0.01015625
 -0.0575 0.0109375
 -0.0575 0.0125
 -0.07625 0.01875
 -0.0825 0.01875
 -0.07 0.01875
 -0.0825 0.025
 -0.07625 0.025
 -0.07 0.025
 -0.06375 0.01875
 -0.0575 0.01875
 -0.06375 0.025
 -0.0575 0.025
 -0.054375 0.000390625
 -0.054375 0
 -0.054375 0.00078125
 -0.054375 0.001171875
 -0.054375 0.0015625
 -0.054375 0.001953125
 -0.054375 0.00234375
 -0.054375 0.002734375
 -0.054375 0.003125
 -0.05125 0.000390625
 -0.05125 0
 -0.05125 0.00078125
 -0.05125 0.001171875
 -0.05125 0.0015625
 -0.05125 0.001953125
 -0.05125 0.00234375
 -0.05125 0.002734375
 -0.05125 0.003125
 -0.054375 0.003515625
 -0.054375 0.00390625
 -0.054375 0.004296875
 -0.054375 0.0046875
 -0.054375 0.005078125
 -0.054375 0.00546875
 -0.054375 0.005859375
 -0.054375 0.00625
 -0.05125 0.003515625
 -0.05125 0.00390625
 -0.05125 0.004296875
 -0.05125 0.0046875
 -0.05125 0.005078125
 -0.05125 0.00546875
 -0.05125 0.005859375
 -0.05125 0.00625
 -0.048125 0.000390625
 -0.048125 0
 -0.048125 0.00078125
 -0.048125 0.001171875
 -0.048125 0.0015625
 -0.048125 0.001953125
 -0.048125 0.00234375
 -0.048125 0.002734375
 -0.048125 0.003125
 -0.045 0.000390625
 -0.045 0
 -0.045 0.00078125
 -0.045 0.001171875
 -0.045 0.0015625
 -0.045 0.001953125
 -0.045 0.00234375
 -0.045 0.002734375
 -0.045 0.003125
 -0.048125 0.003515625
 -0.048125 0.00390625
 -0.048125 0.004296875
 -0.048125 0.0046875
 -0.048125 0.005078125
 -0.048125 0.00546875
 -0.048125 0.005859375
 -0.048125 0.00625
 -0.045 0.003515625
 -0.045 0.00390625
 -0.045 0.004296875
 -0.045 0.0046875
 -0.045 0.005078125
 -0.045 0.00546875
 -0.045 0.005859375
 -0.045 0.00625
 -0.054375 0.006640625
 -0.054375 0.00703125
 -0.054375 0.007421875
 -0.054375 0.0078125
 -0.054375 0.008203125
 -0.054375 0.00859375
 -0.054375 0.008984375
 -0.054375 0.009375
 -0.05125 0.006640625
 -0.05125 0.00703125
 -0.05125 0.007421875
 -0.05125 0.0078125
 -0.05125 0.008203125
 -0.05125 0.00859375
 -0.05125 0.008984375
 -0.05125 0.009375
 -0.054375 0.009765625
 -0.054375 0.01015625
 -0.054375 0.0109375
 -0.054375 0.0125
 -0.05125 0.009765625
 -0.05125 0.01015625
 -0.05125 0.0109375
 -0.05125 0.0125
 -0.048125 0.006640625
 -0.048125 0.00703125
 -0.048125 0.007421875
 -0.048125 0.0078125
 -0.048125 0.008203125
 -0.048125 0.00859375
 -0.048125 0.008984375
 -0.048125 0.009375
 -0.045 0.006640625
 -0.045 0.00703125
 -0.045 0.007421875
 -0.045 0.0078125
 -0.045 0.008203125
 -0.045 0.00859375
 -0.045 0.008984375
 -0.045 0.009375
 -0.048125 0.009765625
 -0.048125 0.01015625
 -0.048125 0.0109375
 -0.048125 0.0125
 -0.045 0.009765625
 -0.045 0.01015625
 -0.045 0.0109375
 -0.045 0.0125
 -0.041875 0.000390625
 -0.041875 0
 -0.041875 0.00078125
 -0.041875 0.001171875
 -0.041875 0.0015625
 -0.041875 0.001953125
 -0.041875 0.00234375
 -0.041875 0.002734375
 -0.041875 0.003125
 -0.03875 0.000390625
 -0.03875 0
 -0.03875 0.00078125
 -0.03875 0.001171875
 -0.03875 0.0015625
 -0.03875 0.001953125
 -0.03875 0.00234375
 -0.03875 0.002734375
 -0.03875 0.003125
 -0.041875 0.003515625
 -0.041875 0.00390625
 -0.041875 0.004296875
 -0.041875 0.0046875
 -0.041875 0.005078125
 -0.041875 0.00546875
 -0.041875 0.005859375
 -0.041875 0.00625
 -0.03875 0.003515625
 -0.03875 0.00390625
 -0.03875 0.004296875
 -0.03875 0.0046875
 -0.03875 0.005078125
 -0.03875 0.00546875
 -0.03875 0.005859375
 -0.03875 0.00625
 -0.035625 0.000390625
 -0.035625 0
 -0.035625 0.00078125
 -0.035625 0.001171875
 -0.035625 0.0015625
 -0.035625 0.001953125
 -0.035625 0.00234375
 -0.035625 0.002734375
 -0.035625 0.003125
 -0.0325 0.0001953125
 -0.0325 0.000390625
 -0.0325 0.0005859375
 -0.0325 0.00078125
 -0.0325 0.0009765625
 -0.0325 0.001171875
 -0.0325 0.0013671875
 -0.0325 0.0015625
 -0.0325 0.0017578125
 -0.0325 0.001953125
 -0.0325 0.0021484375
 -0.0325 0.00234375
 -0.0325 0.0025390625
 -0.0325 0.002734375
 -0.0325 0.0029296875
 -0.0325 0.003125
 -0.035625 0.003515625
 -0.035625 0.00390625
 -0.035625 0.004296875
 -0.035625 0.0046875
 -0.035625 0.005078125
 -0.035625 0.00546875
 -0.035625 0.005859375
 -0.035625 0.00625
 -0.0325 0.0033203125
 -0.0325 0.003515625